TITLE = "Filtered Tetrahedral Mesh"
VARIABLES = "X", "Y", "Z"
ZONE T="Filtered Mesh", N=12, E=10, DATAPACKING=POINT, ZONETYPE=FETETRAHEDRON
0 0 0
1 0 0
1 1 0
0 1 0
0 0 1
1 0 1
1 1 1
0 1 1
0.5 0 0
0 0.5 0
0.5 0 1
0 0.5 1
9 7 11 3
9 6 3 2
9 7 6 3
9 7 11 6
12 10 4 3
12 7 4 3
12 8 7 4
12 7 11 3
12 9 11 3
12 9 10 3
