TITLE = "GCR Shielding Simulation Spectra – Geant4/FTFP_BERT"
# Differential spectra: counts / (MeV * event)
# Shield: G4_Al
# phi = 550 MV (Badhwar-O'Neill, solar minimum)
VARIABLES = "Energy [MeV]" "Input_Proton [1/(MeV evt)]" "Input_Alpha [1/(MeV evt)]" "Output_Proton [1/(MeV evt)]" "Output_Alpha [1/(MeV evt)]" "Output_Neutron [1/(MeV evt)]"
ZONE T="G4_Al_2.00mm | GCR phi=550MV | 50000000 events", I=120, DATAPACKING=POINT
  1.04914e+00  2.74792e-03  1.56712e-04  0.00000e+00  0.00000e+00  0.00000e+00
  1.15478e+00  2.25239e-03  1.21985e-04  0.00000e+00  0.00000e+00  0.00000e+00
  1.27106e+00  2.21356e-03  1.30662e-04  0.00000e+00  0.00000e+00  0.00000e+00
  1.39905e+00  2.22881e-03  1.32263e-04  0.00000e+00  0.00000e+00  0.00000e+00
  1.53993e+00  2.19853e-03  1.32883e-04  0.00000e+00  0.00000e+00  0.00000e+00
  1.69499e+00  2.18427e-03  1.30070e-04  0.00000e+00  0.00000e+00  0.00000e+00
  1.86566e+00  2.75390e-03  1.68433e-04  0.00000e+00  0.00000e+00  0.00000e+00
  2.05353e+00  2.25975e-03  1.34353e-04  0.00000e+00  0.00000e+00  0.00000e+00
  2.26030e+00  2.21233e-03  1.31742e-04  0.00000e+00  0.00000e+00  0.00000e+00
  2.48790e+00  2.21590e-03  1.31919e-04  0.00000e+00  0.00000e+00  0.00000e+00
  2.73842e+00  2.19931e-03  1.24949e-04  0.00000e+00  0.00000e+00  0.00000e+00
  3.01416e+00  2.19535e-03  1.29765e-04  0.00000e+00  0.00000e+00  0.00000e+00
  3.31767e+00  2.72066e-03  1.61672e-04  0.00000e+00  0.00000e+00  0.00000e+00
  3.65174e+00  2.19758e-03  1.30676e-04  0.00000e+00  0.00000e+00  0.00000e+00
  4.01945e+00  2.19183e-03  1.37696e-04  0.00000e+00  0.00000e+00  0.00000e+00
  4.42419e+00  2.17190e-03  1.28867e-04  0.00000e+00  0.00000e+00  0.00000e+00
  4.86968e+00  2.15174e-03  1.29873e-04  0.00000e+00  0.00000e+00  0.00000e+00
  5.36002e+00  2.17085e-03  1.28138e-04  0.00000e+00  0.00000e+00  0.00000e+00
  5.89975e+00  2.72398e-03  1.56222e-04  0.00000e+00  0.00000e+00  0.00000e+00
  6.49382e+00  2.17754e-03  1.31084e-04  0.00000e+00  0.00000e+00  0.00000e+00
  7.14771e+00  2.17550e-03  1.30958e-04  0.00000e+00  0.00000e+00  0.00000e+00
  7.86744e+00  2.16284e-03  1.31082e-04  0.00000e+00  0.00000e+00  0.00000e+00
  8.65964e+00  2.15479e-03  1.27922e-04  0.00000e+00  0.00000e+00  0.00000e+00
  9.53162e+00  2.13532e-03  1.30211e-04  0.00000e+00  0.00000e+00  0.00000e+00
  1.04914e+01  2.11722e-03  1.28289e-04  0.00000e+00  0.00000e+00  0.00000e+00
  1.15478e+01  2.65593e-03  1.58616e-04  0.00000e+00  0.00000e+00  0.00000e+00
  1.27106e+01  2.13155e-03  1.29580e-04  0.00000e+00  0.00000e+00  0.00000e+00
  1.39905e+01  2.12017e-03  1.30297e-04  0.00000e+00  0.00000e+00  0.00000e+00
  1.53993e+01  2.09973e-03  1.26456e-04  0.00000e+00  0.00000e+00  0.00000e+00
  1.69499e+01  2.07779e-03  1.28361e-04  0.00000e+00  0.00000e+00  0.00000e+00
  1.86566e+01  2.05672e-03  1.29642e-04  0.00000e+00  0.00000e+00  0.00000e+00
  2.05353e+01  2.57503e-03  1.60381e-04  0.00000e+00  0.00000e+00  0.00000e+00
  2.26030e+01  2.05901e-03  1.25980e-04  0.00000e+00  0.00000e+00  0.00000e+00
  2.48790e+01  2.02846e-03  1.25126e-04  0.00000e+00  0.00000e+00  0.00000e+00
  2.73842e+01  2.00303e-03  1.26417e-04  0.00000e+00  0.00000e+00  0.00000e+00
  3.01416e+01  1.97771e-03  1.24040e-04  0.00000e+00  0.00000e+00  0.00000e+00
  3.31767e+01  1.94417e-03  1.22366e-04  0.00000e+00  0.00000e+00  0.00000e+00
  3.65174e+01  2.41966e-03  1.54283e-04  0.00000e+00  0.00000e+00  0.00000e+00
  4.01945e+01  1.92739e-03  1.24802e-04  0.00000e+00  0.00000e+00  0.00000e+00
  4.42419e+01  1.88877e-03  1.23582e-04  0.00000e+00  0.00000e+00  0.00000e+00
  4.86968e+01  1.85350e-03  1.20446e-04  0.00000e+00  0.00000e+00  0.00000e+00
  5.36002e+01  1.81776e-03  1.20686e-04  0.00000e+00  0.00000e+00  0.00000e+00
  5.89975e+01  1.77785e-03  1.19401e-04  0.00000e+00  0.00000e+00  0.00000e+00
  6.49382e+01  1.73391e-03  1.17944e-04  0.00000e+00  0.00000e+00  0.00000e+00
  7.14771e+01  2.13400e-03  1.46281e-04  0.00000e+00  0.00000e+00  0.00000e+00
  7.86744e+01  1.67130e-03  1.16173e-04  0.00000e+00  0.00000e+00  0.00000e+00
  8.65964e+01  1.61849e-03  1.14761e-04  0.00000e+00  0.00000e+00  0.00000e+00
  9.53162e+01  1.57096e-03  1.13154e-04  0.00000e+00  0.00000e+00  0.00000e+00
  1.04914e+02  1.51554e-03  1.10356e-04  0.00000e+00  0.00000e+00  0.00000e+00
  1.15478e+02  1.45540e-03  1.08597e-04  0.00000e+00  0.00000e+00  0.00000e+00
  1.27106e+02  1.76019e-03  1.33428e-04  0.00000e+00  0.00000e+00  0.00000e+00
  1.39905e+02  1.35599e-03  1.05746e-04  0.00000e+00  0.00000e+00  0.00000e+00
  1.53993e+02  1.29274e-03  1.04022e-04  0.00000e+00  0.00000e+00  0.00000e+00
  1.69499e+02  1.22880e-03  1.00415e-04  0.00000e+00  0.00000e+00  0.00000e+00
  1.86566e+02  1.16321e-03  9.80105e-05  0.00000e+00  0.00000e+00  0.00000e+00
  2.05353e+02  1.09504e-03  9.53834e-05  0.00000e+00  0.00000e+00  0.00000e+00
  2.26030e+02  1.28777e-03  1.16498e-04  0.00000e+00  0.00000e+00  0.00000e+00
  2.48790e+02  9.64478e-04  9.03957e-05  0.00000e+00  0.00000e+00  0.00000e+00
  2.73842e+02  8.96606e-04  8.74094e-05  0.00000e+00  0.00000e+00  0.00000e+00
  3.01416e+02  8.27248e-04  8.40913e-05  0.00000e+00  0.00000e+00  0.00000e+00
  3.31767e+02  7.61252e-04  8.00445e-05  0.00000e+00  0.00000e+00  0.00000e+00
  3.65174e+02  6.97341e-04  7.66267e-05  0.00000e+00  0.00000e+00  0.00000e+00
  4.01945e+02  6.33825e-04  7.28662e-05  0.00000e+00  0.00000e+00  0.00000e+00
  4.42419e+02  7.14690e-04  8.67328e-05  0.00000e+00  0.00000e+00  0.00000e+00
  4.86968e+02  5.12762e-04  6.58504e-05  0.00000e+00  0.00000e+00  0.00000e+00
  5.36002e+02  4.56650e-04  6.19015e-05  0.00000e+00  0.00000e+00  0.00000e+00
  5.89975e+02  4.04768e-04  5.79456e-05  0.00000e+00  0.00000e+00  0.00000e+00
  6.49382e+02  3.56013e-04  5.41181e-05  0.00000e+00  0.00000e+00  0.00000e+00
  7.14771e+02  3.10975e-04  5.00955e-05  0.00000e+00  0.00000e+00  0.00000e+00
  7.86744e+02  3.34669e-04  5.79757e-05  0.00000e+00  0.00000e+00  0.00000e+00
  8.65964e+02  2.28529e-04  4.27411e-05  0.00000e+00  0.00000e+00  0.00000e+00
  9.53162e+02  1.94922e-04  3.89852e-05  0.00000e+00  0.00000e+00  0.00000e+00
  1.04914e+03  1.65315e-04  3.54549e-05  0.00000e+00  0.00000e+00  0.00000e+00
  1.15478e+03  1.38983e-04  3.20295e-05  0.00000e+00  0.00000e+00  0.00000e+00
  1.27106e+03  1.16151e-04  2.88852e-05  0.00000e+00  0.00000e+00  0.00000e+00
  1.39905e+03  1.19025e-04  3.21390e-05  0.00000e+00  0.00000e+00  0.00000e+00
  1.53993e+03  7.73508e-05  2.27262e-05  0.00000e+00  0.00000e+00  0.00000e+00
  1.69499e+03  6.29846e-05  2.00338e-05  0.00000e+00  0.00000e+00  0.00000e+00
  1.86566e+03  5.08623e-05  1.74563e-05  0.00000e+00  0.00000e+00  0.00000e+00
  2.05353e+03  4.09887e-05  1.52793e-05  0.00000e+00  0.00000e+00  0.00000e+00
  2.26030e+03  3.27551e-05  1.31749e-05  0.00000e+00  0.00000e+00  0.00000e+00
  2.48790e+03  2.59561e-05  1.13281e-05  0.00000e+00  0.00000e+00  0.00000e+00
  2.73842e+03  2.51264e-05  1.19526e-05  0.00000e+00  0.00000e+00  0.00000e+00
  3.01416e+03  1.54263e-05  8.04659e-06  0.00000e+00  0.00000e+00  0.00000e+00
  3.31767e+03  1.19785e-05  6.75975e-06  0.00000e+00  0.00000e+00  0.00000e+00
  3.65174e+03  9.28002e-06  5.66162e-06  0.00000e+00  0.00000e+00  0.00000e+00
  4.01945e+03  7.09822e-06  4.68933e-06  0.00000e+00  0.00000e+00  0.00000e+00
  4.42419e+03  5.41731e-06  3.86026e-06  0.00000e+00  0.00000e+00  0.00000e+00
  4.86968e+03  5.01133e-06  3.87474e-06  0.00000e+00  0.00000e+00  0.00000e+00
  5.36002e+03  2.94163e-06  2.49271e-06  0.00000e+00  0.00000e+00  0.00000e+00
  5.89975e+03  2.22423e-06  2.00917e-06  0.00000e+00  0.00000e+00  0.00000e+00
  6.49382e+03  1.67689e-06  1.62124e-06  0.00000e+00  0.00000e+00  0.00000e+00
  7.14771e+03  1.23944e-06  1.26923e-06  0.00000e+00  0.00000e+00  0.00000e+00
  7.86744e+03  9.21335e-07  1.01865e-06  0.00000e+00  0.00000e+00  0.00000e+00
  8.65964e+03  8.32237e-07  9.80227e-07  0.00000e+00  0.00000e+00  0.00000e+00
  9.53162e+03  4.71741e-07  5.92267e-07  0.00000e+00  0.00000e+00  0.00000e+00
  1.04914e+04  3.48401e-07  4.63304e-07  0.00000e+00  0.00000e+00  0.00000e+00
  1.15478e+04  2.54201e-07  3.65593e-07  0.00000e+00  0.00000e+00  0.00000e+00
  1.27106e+04  1.85501e-07  2.78047e-07  0.00000e+00  0.00000e+00  0.00000e+00
  1.39905e+04  1.32382e-07  2.10176e-07  0.00000e+00  0.00000e+00  0.00000e+00
  1.53993e+04  9.84987e-08  1.60258e-07  0.00000e+00  0.00000e+00  0.00000e+00
  1.69499e+04  8.65373e-08  1.49003e-07  0.00000e+00  0.00000e+00  0.00000e+00
  1.86566e+04  4.70339e-08  8.82039e-08  0.00000e+00  0.00000e+00  0.00000e+00
  2.05353e+04  3.41565e-08  6.49034e-08  0.00000e+00  0.00000e+00  0.00000e+00
  2.26030e+04  2.43018e-08  4.94425e-08  0.00000e+00  0.00000e+00  0.00000e+00
  2.48790e+04  1.74803e-08  3.63090e-08  0.00000e+00  0.00000e+00  0.00000e+00
  2.73842e+04  1.28297e-08  2.74933e-08  0.00000e+00  0.00000e+00  0.00000e+00
  3.01416e+04  1.04047e-08  2.45426e-08  0.00000e+00  0.00000e+00  0.00000e+00
  3.31767e+04  5.65914e-09  1.45718e-08  0.00000e+00  0.00000e+00  0.00000e+00
  3.65174e+04  4.20559e-09  1.02714e-08  0.00000e+00  0.00000e+00  0.00000e+00
  4.01945e+04  3.07949e-09  7.63133e-09  0.00000e+00  0.00000e+00  0.00000e+00
  4.42419e+04  2.10068e-09  5.43069e-09  0.00000e+00  0.00000e+00  0.00000e+00
  4.86968e+04  1.45492e-09  4.41182e-09  0.00000e+00  0.00000e+00  0.00000e+00
  5.36002e+04  1.35681e-09  3.72830e-09  0.00000e+00  0.00000e+00  0.00000e+00
  5.89975e+04  7.84113e-10  2.11216e-09  0.00000e+00  0.00000e+00  0.00000e+00
  6.49382e+04  4.97383e-10  1.51782e-09  0.00000e+00  0.00000e+00  0.00000e+00
  7.14771e+04  3.38182e-10  1.07285e-09  0.00000e+00  0.00000e+00  0.00000e+00
  7.86744e+04  2.78109e-10  7.57516e-10  0.00000e+00  0.00000e+00  0.00000e+00
  8.65964e+04  2.04540e-10  6.01588e-10  0.00000e+00  0.00000e+00  0.00000e+00
  9.53162e+04  1.66152e-10  4.83153e-10  0.00000e+00  0.00000e+00  0.00000e+00
